1
Lattice="5.671014 0.0 0.0 -2.474808 4.698534 0.0 -0.160404 -0.174218 4.894044" Properties=species:S:1:pos:R:3:dft_force:R:3 config_type=sh dft_energy=-162.78192 dft_virial="-0.904828 -0.109712 0.17244 -0.109712 -0.77309 0.253997 0.17244 0.253997 0.138001" cutoff=-1.0 nneightol=1.2 pbc="T T T"
Si       0.00000000       0.00000000       0.00000000       0.00000000       0.00000000       0.00000000
