1
Lattice="2.835507 0.0 0.0 -1.237404 2.349267 0.0 -0.080202 -0.087109 2.447022" Properties=species:S:1:pos:R:3:dft_force:R:3 config_type=sh dft_energy=-162.78192 dft_virial="-0.904828 -0.109712 0.17244 -0.109712 -0.77309 0.253997 0.17244 0.253997 0.138001" cutoff=-1.0 nneightol=1.2 pbc="T T T"
Si       0.00000000       0.00000000       0.00000000       0.00000000       0.00000000       0.00000000
